      -----------------------------------------------------------      
     |                   =====================                   |     
     |                           x T B                           |     
     |                   =====================                   |     
     |                         S. Grimme                         |     
     |          Mulliken Center for Theoretical Chemistry        |     
     |                    University of Bonn                     |     
      -----------------------------------------------------------      

   * xtb version 6.6.1 (8d0f1dd) compiled by 'conda@1efc2f54142f' on 2023-08-01

   xtb is free software: you can redistribute it and/or modify it under
   the terms of the GNU Lesser General Public License as published by
   the Free Software Foundation, either version 3 of the License, or
   (at your option) any later version.
   
   xtb is distributed in the hope that it will be useful,
   but WITHOUT ANY WARRANTY; without even the implied warranty of
   MERCHANTABILITY or FITNESS FOR A PARTICULAR PURPOSE.  See the
   GNU Lesser General Public License for more details.
   
   Cite this work as:
   * C. Bannwarth, E. Caldeweyher, S. Ehlert, A. Hansen, P. Pracht,
     J. Seibert, S. Spicher, S. Grimme, WIREs Comput. Mol. Sci., 2020, 11,
     e01493. DOI: 10.1002/wcms.1493
   
   for GFN2-xTB:
   * C. Bannwarth, S. Ehlert and S. Grimme., J. Chem. Theory Comput., 2019,
     15, 1652-1671. DOI: 10.1021/acs.jctc.8b01176
   for GFN1-xTB:
   * S. Grimme, C. Bannwarth, P. Shushkov, J. Chem. Theory Comput., 2017,
     13, 1989-2009. DOI: 10.1021/acs.jctc.7b00118
   for GFN0-xTB:
   * P. Pracht, E. Caldeweyher, S. Ehlert, S. Grimme, ChemRxiv, 2019, preprint.
     DOI: 10.26434/chemrxiv.8326202.v1
   for GFN-FF:
   * S. Spicher and S. Grimme, Angew. Chem. Int. Ed., 2020, 59, 15665-15673.
     DOI: 10.1002/anie.202004239
   
   for ALPB and GBSA implicit solvation:
   * S. Ehlert, M. Stahn, S. Spicher, S. Grimme, J. Chem. Theory Comput.,
     2021, 17, 4250-4261. DOI: 10.1021/acs.jctc.1c00471
   
   for DFT-D4:
   * E. Caldeweyher, C. Bannwarth and S. Grimme, J. Chem. Phys., 2017,
     147, 034112. DOI: 10.1063/1.4993215
   * E. Caldeweyher, S. Ehlert, A. Hansen, H. Neugebauer, S. Spicher,
     C. Bannwarth and S. Grimme, J. Chem. Phys., 2019, 150, 154122.
     DOI: 10.1063/1.5090222
   * E. Caldeweyher, J.-M. Mewes, S. Ehlert and S. Grimme, Phys. Chem. Chem. Phys.
     2020, 22, 8499-8512. DOI: 10.1039/D0CP00502A
   
   for sTDA-xTB:
   * S. Grimme and C. Bannwarth, J. Chem. Phys., 2016, 145, 054103.
     DOI: 10.1063/1.4959605
   
   in the mass-spec context:
   * V. Asgeirsson, C. Bauer and S. Grimme, Chem. Sci., 2017, 8, 4879.
     DOI: 10.1039/c7sc00601b
   * J. Koopman and S. Grimme, ACS Omega 2019, 4, 12, 15120-15133.
     DOI: 10.1021/acsomega.9b02011
   
   for metadynamics refer to:
   * S. Grimme, J. Chem. Theory Comput., 2019, 155, 2847-2862
     DOI: 10.1021/acs.jctc.9b00143
   
   for SPH calculations refer to:
   * S. Spicher and S. Grimme, J. Chem. Theory Comput., 2021, 17, 1701-1714
     DOI: 10.1021/acs.jctc.0c01306
   
   with help from (in alphabetical order)
   P. Atkinson, C. Bannwarth, F. Bohle, G. Brandenburg, E. Caldeweyher
   M. Checinski, S. Dohm, S. Ehlert, S. Ehrlich, I. Gerasimov, C. Hölzer
   A. Katbashev, J. Koopman, C. Lavigne, S. Lehtola, F. März, M. Müller,
   F. Musil, H. Neugebauer, J. Pisarek, C. Plett, P. Pracht, F. Pultar,
   J. Seibert, P. Shushkov, S. Spicher, M. Stahn, M. Steiner, T. Strunk,
   J. Stückrath, T. Rose, and J. Unsleber
   
 * started run on 2024/12/10 at 07:23:44.967     

           -------------------------------------------------
          |                Calculation Setup                |
           -------------------------------------------------

          program call               : xtb dataGeo_opt/Oxazole/Oxazole_rdkitOp.xyz --gfn 2 --opt vtight --parallel 4
          coordinate file            : dataGeo_opt/Oxazole/Oxazole_rdkitOp.xyz
          omp threads                :                     4

   ID    Z sym.   atoms
    1    6 C      1, 2, 5
    2    8 O      3
    3    7 N      4
    4    1 H      6-8

           -------------------------------------------------
          |                 G F N 2 - x T B                 |
           -------------------------------------------------

        Reference                      10.1021/acs.jctc.8b01176
      * Hamiltonian:
        H0-scaling (s, p, d)           1.850000    2.230000    2.230000
        zeta-weighting                 0.500000
      * Dispersion:
        s8                             2.700000
        a1                             0.520000
        a2                             5.000000
        s9                             5.000000
      * Repulsion:
        kExp                           1.500000    1.000000
        rExp                           1.000000
      * Coulomb:
        alpha                          2.000000
        third order                    shell-resolved
        anisotropic                    true
        a3                             3.000000
        a5                             4.000000
        cn-shift                       1.200000
        cn-exp                         4.000000
        max-rad                        5.000000


          ...................................................
          :                      SETUP                      :
          :.................................................:
          :  # basis functions                  23          :
          :  # atomic orbitals                  23          :
          :  # shells                           13          :
          :  # electrons                        26          :
          :  max. iterations                   250          :
          :  Hamiltonian                  GFN2-xTB          :
          :  restarted?                      false          :
          :  GBSA solvation                  false          :
          :  PC potential                    false          :
          :  electronic temp.          300.0000000     K    :
          :  accuracy                    1.0000000          :
          :  -> integral cutoff          0.2500000E+02      :
          :  -> integral neglect         0.1000000E-07      :
          :  -> SCF convergence          0.1000000E-05 Eh   :
          :  -> wf. convergence          0.1000000E-03 e    :
          :  Broyden damping             0.4000000          :
          ...................................................

 iter      E             dE          RMSdq      gap      omega  full diag
   1    -15.0228813 -0.150229E+02  0.497E+00    4.57       0.0  T
   2    -15.0381321 -0.152508E-01  0.326E+00    4.60       1.0  T
   3    -15.0365979  0.153422E-02  0.140E+00    4.36       1.0  T
   4    -15.0433176 -0.671971E-02  0.398E-01    4.23       1.0  T
   5    -15.0437704 -0.452730E-03  0.133E-01    4.25       1.0  T
   6    -15.0438134 -0.430527E-04  0.716E-02    4.22       1.0  T
   7    -15.0438194 -0.596845E-05  0.233E-02    4.23       1.5  T
   8    -15.0438199 -0.515491E-06  0.892E-03    4.23       4.0  T
   9    -15.0438201 -0.215939E-06  0.270E-03    4.23      13.1  T
  10    -15.0438201 -0.504028E-08  0.653E-04    4.23      54.1  T
  11    -15.0438201 -0.207889E-08  0.223E-04    4.23     158.4  T

   *** convergence criteria satisfied after 11 iterations ***

         #    Occupation            Energy/Eh            Energy/eV
      -------------------------------------------------------------
         1        2.0000           -0.7559222             -20.5697
       ...           ...                  ...                  ...
         7        2.0000           -0.5661122             -15.4047
         8        2.0000           -0.5109039             -13.9024
         9        2.0000           -0.4990033             -13.5786
        10        2.0000           -0.4890919             -13.3089
        11        2.0000           -0.4544651             -12.3666
        12        2.0000           -0.4323478             -11.7648
        13        2.0000           -0.4184845             -11.3875 (HOMO)
        14                         -0.2630629              -7.1583 (LUMO)
        15                         -0.1905788              -5.1859
        16                         -0.0434725              -1.1829
        17                          0.0806118               2.1936
        18                          0.1050961               2.8598
       ...                                ...                  ...
        23                          0.6230033              16.9528
      -------------------------------------------------------------
                  HL-Gap            0.1554216 Eh            4.2292 eV
             Fermi-level           -0.3407737 Eh           -9.2729 eV

 SCC (total)                   0 d,  0 h,  0 min,  0.855 sec
 SCC setup                      ...        0 min,  0.040 sec (  4.702%)
 Dispersion                     ...        0 min,  0.042 sec (  4.959%)
 classical contributions        ...        0 min,  0.053 sec (  6.145%)
 integral evaluation            ...        0 min,  0.056 sec (  6.516%)
 iterations                     ...        0 min,  0.661 sec ( 77.311%)
 molecular gradient             ...        0 min,  0.003 sec (  0.308%)
 printout                       ...        0 min,  0.000 sec (  0.047%)

         :::::::::::::::::::::::::::::::::::::::::::::::::::::
         ::                     SUMMARY                     ::
         :::::::::::::::::::::::::::::::::::::::::::::::::::::
         :: total energy             -14.879891393259 Eh    ::
         :: gradient norm              0.062606650683 Eh/a0 ::
         :: HOMO-LUMO gap              4.229237921205 eV    ::
         ::.................................................::
         :: SCC energy               -15.043820131241 Eh    ::
         :: -> isotropic ES            0.009377453387 Eh    ::
         :: -> anisotropic ES          0.001314373878 Eh    ::
         :: -> anisotropic XC          0.012554264885 Eh    ::
         :: -> dispersion             -0.004090693910 Eh    ::
         :: repulsion energy           0.163928199237 Eh    ::
         :: add. restraining           0.000000000000 Eh    ::
         :: total charge               0.000000000000 e     ::
         :::::::::::::::::::::::::::::::::::::::::::::::::::::

      ----------------------------------------------------------- 
     |                   =====================                   |
     |                        A N C O P T                        |
     |                   =====================                   |
     |               Approximate Normal Coordinate               |
     |                Rational Function Optimizer                |
      ----------------------------------------------------------- 

          ...................................................
          :                      SETUP                      :
          :.................................................:
          :   optimization level         verytight          :
          :   max. optcycles                   200          :
          :   ANC micro-cycles                  20          :
          :   degrees of freedom                18          :
          :.................................................:
          :   RF solver                   davidson          :
          :   write xtbopt.log                true          :
          :   linear?                        false          :
          :   energy convergence         0.1000000E-06 Eh   :
          :   grad. convergence          0.2000000E-03 Eh/α :
          :   maxmium RF displ.          1.0000000          :
          :   Hlow (freq-cutoff)         0.1000000E-01      :
          :   Hmax (freq-cutoff)         5.0000000          :
          :   S6 in model hess.         20.0000000          :
          ...................................................

generating ANC from model Hessian ...
Using Lindh-Hessian (1995)
 Shifting diagonal of input Hessian by    0.0000000000000000     
 Lowest  eigenvalues of input Hessian
    0.000000    0.000000    0.000000    0.000000    0.000000    0.000000
    0.019695    0.053714    0.067409    0.100998    0.119751    0.128604
    0.183386    0.196404    0.285061    0.366521    0.380336    0.722840
 Highest eigenvalues
    1.045102    1.232255    1.661751    1.672308    1.878291    1.954880


........................................................................
.............................. CYCLE    1 ..............................
........................................................................

 iter      E             dE          RMSdq      gap      omega  full diag
   1    -15.0438201 -0.150438E+02  0.483E-05    4.23       0.0  T
   2    -15.0438201 -0.293809E-11  0.303E-05    4.23    1166.7  T
   3    -15.0438201 -0.785150E-12  0.194E-05    4.23    1824.8  T
     SCC iter.                  ...        0 min,  0.123 sec
     gradient                   ...        0 min,  0.003 sec
 * total energy  :   -14.8798914 Eh     change       -0.6883205E-10 Eh
   gradient norm :     0.0626052 Eh/α   predicted     0.0000000E+00 (-100.00%)
   displ. norm   :     0.0735032 α      lambda       -0.3730154E-02
   maximum displ.:     0.0577635 α      in ANC's #10, #14, #13, ...

........................................................................
.............................. CYCLE    2 ..............................
........................................................................

 iter      E             dE          RMSdq      gap      omega  full diag
   1    -15.0580615 -0.150581E+02  0.245E-01    4.34       0.0  T
   2    -15.0581632 -0.101744E-03  0.150E-01    4.35       1.0  T
   3    -15.0581830 -0.198491E-04  0.804E-02    4.34       1.0  T
   4    -15.0581906 -0.751083E-05  0.212E-02    4.34       1.7  T
   5    -15.0581925 -0.190385E-05  0.719E-03    4.34       4.9  T
   6    -15.0581926 -0.157371E-06  0.313E-03    4.34      11.3  T
   7    -15.0581926 -0.726132E-08  0.120E-03    4.34      29.5  T
   8    -15.0581926 -0.249019E-08  0.479E-04    4.34      73.8  T
   9    -15.0581926 -0.328074E-09  0.124E-04    4.34     285.0  T
     SCC iter.                  ...        0 min,  0.207 sec
     gradient                   ...        0 min,  0.008 sec
 * total energy  :   -14.8823838 Eh     change       -0.2492401E-02 Eh
   gradient norm :     0.0251506 Eh/α   predicted    -0.1875153E-02 ( -24.77%)
   displ. norm   :     0.0367524 α      lambda       -0.7835013E-03
   maximum displ.:     0.0229736 α      in ANC's #14, #10, #8, ...

........................................................................
.............................. CYCLE    3 ..............................
........................................................................

 iter      E             dE          RMSdq      gap      omega  full diag
   1    -15.0632712 -0.150633E+02  0.142E-01    4.42       0.0  T
   2    -15.0633311 -0.599088E-04  0.954E-02    4.43       1.0  T
   3    -15.0633469 -0.157569E-04  0.487E-02    4.43       1.0  T
   4    -15.0633471 -0.220083E-06  0.150E-02    4.42       2.4  T
   5    -15.0633479 -0.784628E-06  0.517E-03    4.43       6.8  T
   6    -15.0633480 -0.733428E-07  0.247E-03    4.42      14.3  T
   7    -15.0633480 -0.617861E-08  0.110E-03    4.42      32.1  T
   8    -15.0633480 -0.161920E-08  0.402E-04    4.42      87.9  T
   9    -15.0633480 -0.219908E-09  0.105E-04    4.42     336.6  T
     SCC iter.                  ...        0 min,  0.442 sec
     gradient                   ...        0 min,  0.003 sec
 * total energy  :   -14.8827912 Eh     change       -0.4074421E-03 Eh
   gradient norm :     0.0062853 Eh/α   predicted    -0.3922812E-03 (  -3.72%)
   displ. norm   :     0.0089313 α      lambda       -0.4149828E-04
   maximum displ.:     0.0053073 α      in ANC's #5, #10, #14, ...

........................................................................
.............................. CYCLE    4 ..............................
........................................................................

 iter      E             dE          RMSdq      gap      omega  full diag
   1    -15.0624890 -0.150625E+02  0.297E-02    4.42       0.0  T
   2    -15.0624906 -0.158566E-05  0.186E-02    4.43       1.9  T
   3    -15.0624911 -0.486273E-06  0.100E-02    4.43       3.5  T
   4    -15.0624911 -0.592162E-07  0.169E-03    4.43      20.9  T
   5    -15.0624911 -0.409011E-08  0.837E-04    4.43      42.2  T
   6    -15.0624911 -0.811223E-09  0.448E-04    4.43      79.0  T
     SCC iter.                  ...        0 min,  0.158 sec
     gradient                   ...        0 min,  0.003 sec
 * total energy  :   -14.8828205 Eh     change       -0.2929307E-04 Eh
   gradient norm :     0.0025239 Eh/α   predicted    -0.2075018E-04 ( -29.16%)
   displ. norm   :     0.0096773 α      lambda       -0.1515158E-04
   maximum displ.:     0.0076070 α      in ANC's #5, #10, #4, ...

........................................................................
.............................. CYCLE    5 ..............................
........................................................................

 iter      E             dE          RMSdq      gap      omega  full diag
   1    -15.0618645 -0.150619E+02  0.230E-02    4.42       0.0  T
   2    -15.0618650 -0.569716E-06  0.135E-02    4.43       2.6  T
   3    -15.0618652 -0.173664E-06  0.778E-03    4.42       4.5  T
   4    -15.0618653 -0.627444E-07  0.114E-03    4.42      31.1  T
   5    -15.0618653 -0.350847E-08  0.625E-04    4.42      56.5  T
   6    -15.0618653 -0.779812E-09  0.305E-04    4.42     115.9  T
     SCC iter.                  ...        0 min,  0.135 sec
     gradient                   ...        0 min,  0.003 sec
 * total energy  :   -14.8828288 Eh     change       -0.8236568E-05 Eh
   gradient norm :     0.0004714 Eh/α   predicted    -0.7576167E-05 (  -8.02%)
   displ. norm   :     0.0038639 α      lambda       -0.6887078E-06
   maximum displ.:     0.0032475 α      in ANC's #5, #4, #9, ...

........................................................................
.............................. CYCLE    6 ..............................
........................................................................

 iter      E             dE          RMSdq      gap      omega  full diag
   1    -15.0618991 -0.150619E+02  0.656E-03    4.42       0.0  T
   2    -15.0618991 -0.462651E-08  0.402E-03    4.42       8.8  T
   3    -15.0618991  0.148037E-07  0.175E-03    4.42      20.2  T
   4    -15.0618991 -0.185377E-07  0.116E-04    4.42     303.7  T
   5    -15.0618991 -0.195168E-10  0.531E-05    4.42     665.7  T
     SCC iter.                  ...        0 min,  0.115 sec
     gradient                   ...        0 min,  0.003 sec
 * total energy  :   -14.8828293 Eh     change       -0.5276307E-06 Eh
   gradient norm :     0.0002214 Eh/α   predicted    -0.3441649E-06 ( -34.77%)
   displ. norm   :     0.0004408 α      lambda       -0.4808849E-07
   maximum displ.:     0.0002352 α      in ANC's #10, #4, #15, ...

........................................................................
.............................. CYCLE    7 ..............................
........................................................................

 iter      E             dE          RMSdq      gap      omega  full diag
   1    -15.0619622 -0.150620E+02  0.142E-03    4.42       0.0  T
   2    -15.0619622 -0.599923E-08  0.971E-04    4.42      36.4  T
   3    -15.0619622 -0.251451E-08  0.454E-04    4.42      77.8  T
     SCC iter.                  ...        0 min,  0.071 sec
     gradient                   ...        0 min,  0.003 sec
 * total energy  :   -14.8828293 Eh     change       -0.2976161E-07 Eh
   gradient norm :     0.0000747 Eh/α   predicted    -0.2447327E-07 ( -17.77%)
   displ. norm   :     0.0002651 α      lambda       -0.5719679E-08
   maximum displ.:     0.0001953 α      in ANC's #1, #2, #10, ...

   *** GEOMETRY OPTIMIZATION CONVERGED AFTER 7 ITERATIONS ***

------------------------------------------------------------------------
 total energy gain   :        -0.0029379 Eh       -1.8436 kcal/mol
 total RMSD          :         0.0369566 a0        0.0196 Å
 total power (kW/mol):        -1.1019334 (step)   -4.8946 (real)
------------------------------------------------------------------------

 ANCopt (total)                0 d,  0 h,  0 min,  1.576 sec
 optimizer setup                ...        0 min,  0.000 sec (  0.017%)
 model hessian                  ...        0 min,  0.119 sec (  7.560%)
 ANC generation                 ...        0 min,  0.001 sec (  0.033%)
 coordinate transformation      ...        0 min,  0.000 sec (  0.009%)
 single point calculation       ...        0 min,  1.392 sec ( 88.295%)
 optimization log               ...        0 min,  0.002 sec (  0.102%)
 hessian update                 ...        0 min,  0.019 sec (  1.223%)
 rational function              ...        0 min,  0.042 sec (  2.671%)

================
 final structure:
================
8
 xtb: 6.6.1 (8d0f1dd)
C           -0.02284122382480        0.77769208648800       -0.00001139280272
C           -1.08441462610576       -0.07686212537046        0.00001456594021
O           -0.64674794696045       -1.33705297984469       -0.00002395882397
N            0.70231569623897       -1.33866896210140       -0.00001275168490
C            1.08990848487168       -0.09501295999128        0.00001599075037
H           -0.02594634001019        1.84659264794284       -0.00002308018490
H           -2.14512524141417        0.07521763934294        0.00002216477880
H            2.13285219720470        0.14809565353407        0.00001746202711

 Bond Distances (Angstroems)
 ---------------------------
C1-C2=1.3628         C1-C5=1.4142         C1-H6=1.0689         C2-C1=1.3628         C2-O3=1.3340         C2-H7=1.0716         
O3-C2=1.3340         O3-N4=1.3491         N4-O3=1.3491         N4-C5=1.3027         C5-C1=1.4142         C5-N4=1.3027         
C5-H8=1.0709         H6-C1=1.0689         H7-C2=1.0716         H8-C5=1.0709         
 C  H  Rav=1.0705 sigma=0.0011  Rmin=1.0689  Rmax=1.0716     3
 C  C  Rav=1.3885 sigma=0.0257  Rmin=1.3628  Rmax=1.4142     2
 N  C  Rav=1.3027 sigma=0.0000  Rmin=1.3027  Rmax=1.3027     1
 O  C  Rav=1.3340 sigma=0.0000  Rmin=1.3340  Rmax=1.3340     1
 O  N  Rav=1.3491 sigma=0.0000  Rmin=1.3491  Rmax=1.3491     1

 selected bond angles (degree)
 --------------------
C5-C1-C2=103.06                H6-C1-C2=128.67                H6-C1-C5=128.27                O3-C2-C1=109.68                
H7-C2-C1=133.01                H7-C2-O3=117.31                N4-O3-C2=109.22                C5-N4-O3=107.24                
N4-C5-C1=110.80                H8-C5-C1=128.77                H8-C5-N4=120.43                

 selected dihedral angles (degree)
 ---------------------------------
O3-C2-C1-C5=  0.00            O3-C2-C1-H6=180.00            H7-C2-C1-C5=180.00            H7-C2-C1-H6=  0.00            
N4-O3-C2-C1=  0.00            N4-O3-C2-H7=180.00            C5-N4-O3-C2=  0.00            N4-C5-C1-C2=  0.00            
N4-C5-C1-H6=180.00            H8-C5-C1-C2=180.00            H8-C5-C1-H6=  0.00            C1-C5-N4-O3=  0.00            
H8-C5-N4-O3=180.00            
           -------------------------------------------------
          |                Final Singlepoint                |
           -------------------------------------------------

          ...................................................
          :                      SETUP                      :
          :.................................................:
          :  # basis functions                  23          :
          :  # atomic orbitals                  23          :
          :  # shells                           13          :
          :  # electrons                        26          :
          :  max. iterations                   250          :
          :  Hamiltonian                  GFN2-xTB          :
          :  restarted?                      false          :
          :  GBSA solvation                  false          :
          :  PC potential                    false          :
          :  electronic temp.          300.0000000     K    :
          :  accuracy                    1.0000000          :
          :  -> integral cutoff          0.2500000E+02      :
          :  -> integral neglect         0.1000000E-07      :
          :  -> SCF convergence          0.1000000E-05 Eh   :
          :  -> wf. convergence          0.1000000E-03 e    :
          :  Broyden damping             0.4000000          :
          ...................................................

 iter      E             dE          RMSdq      gap      omega  full diag
   1    -15.0619622 -0.150620E+02  0.110E-04    4.42       0.0  T
   2    -15.0619622 -0.240234E-10  0.809E-05    4.42     437.0  T
   3    -15.0619622 -0.202380E-10  0.426E-05    4.42     829.9  T

   *** convergence criteria satisfied after 3 iterations ***

         #    Occupation            Energy/Eh            Energy/eV
      -------------------------------------------------------------
         1        2.0000           -0.7644731             -20.8024
       ...           ...                  ...                  ...
         7        2.0000           -0.5679733             -15.4553
         8        2.0000           -0.5102631             -13.8850
         9        2.0000           -0.4975768             -13.5398
        10        2.0000           -0.4879493             -13.2778
        11        2.0000           -0.4536912             -12.3456
        12        2.0000           -0.4326768             -11.7737
        13        2.0000           -0.4130882             -11.2407 (HOMO)
        14                         -0.2505588              -6.8181 (LUMO)
        15                         -0.1857062              -5.0533
        16                         -0.0029563              -0.0804
        17                          0.1018324               2.7710
        18                          0.1318015               3.5865
       ...                                ...                  ...
        23                          0.6506892              17.7062
      -------------------------------------------------------------
                  HL-Gap            0.1625294 Eh            4.4226 eV
             Fermi-level           -0.3318235 Eh           -9.0294 eV

 SCC (total)                   0 d,  0 h,  0 min,  0.224 sec
 SCC setup                      ...        0 min,  0.000 sec (  0.120%)
 Dispersion                     ...        0 min,  0.000 sec (  0.038%)
 classical contributions        ...        0 min,  0.000 sec (  0.012%)
 integral evaluation            ...        0 min,  0.001 sec (  0.571%)
 iterations                     ...        0 min,  0.145 sec ( 64.597%)
 molecular gradient             ...        0 min,  0.077 sec ( 34.457%)
 printout                       ...        0 min,  0.000 sec (  0.172%)

         :::::::::::::::::::::::::::::::::::::::::::::::::::::
         ::                     SUMMARY                     ::
         :::::::::::::::::::::::::::::::::::::::::::::::::::::
         :: total energy             -14.882829323112 Eh    ::
         :: gradient norm              0.000075553054 Eh/a0 ::
         :: HOMO-LUMO gap              4.422649871509 eV    ::
         ::.................................................::
         :: SCC energy               -15.061962173340 Eh    ::
         :: -> isotropic ES            0.008092953596 Eh    ::
         :: -> anisotropic ES          0.002183890831 Eh    ::
         :: -> anisotropic XC          0.012184719555 Eh    ::
         :: -> dispersion             -0.004109250617 Eh    ::
         :: repulsion energy           0.179132352151 Eh    ::
         :: add. restraining           0.000000000000 Eh    ::
         :: total charge              -0.000000000000 e     ::
         :::::::::::::::::::::::::::::::::::::::::::::::::::::

           -------------------------------------------------
          |                Property Printout                |
           -------------------------------------------------

    * Orbital Energies and Occupations

         #    Occupation            Energy/Eh            Energy/eV
      -------------------------------------------------------------
         1        2.0000           -0.7644731             -20.8024
         2        2.0000           -0.6863575             -18.6767
         3        2.0000           -0.6819032             -18.5555
         4        2.0000           -0.6158756             -16.7588
         5        2.0000           -0.5964213             -16.2295
         6        2.0000           -0.5932973             -16.1444
         7        2.0000           -0.5679733             -15.4553
         8        2.0000           -0.5102631             -13.8850
         9        2.0000           -0.4975768             -13.5398
        10        2.0000           -0.4879493             -13.2778
        11        2.0000           -0.4536912             -12.3456
        12        2.0000           -0.4326768             -11.7737
        13        2.0000           -0.4130882             -11.2407 (HOMO)
        14                         -0.2505588              -6.8181 (LUMO)
        15                         -0.1857062              -5.0533
        16                         -0.0029563              -0.0804
        17                          0.1018324               2.7710
        18                          0.1318015               3.5865
        19                          0.1924355               5.2364
        20                          0.2511886               6.8352
        21                          0.3812337              10.3739
        22                          0.4181973              11.3797
        23                          0.6506892              17.7062
      -------------------------------------------------------------
                  HL-Gap            0.1625294 Eh            4.4226 eV
             Fermi-level           -0.3318235 Eh           -9.0294 eV

     #   Z          covCN         q      C6AA      α(0)
     1   6 C        2.954    -0.066    29.635     8.929
     2   6 C        3.021     0.088    26.019     8.367
     3   8 O        1.826    -0.099    15.809     5.369
     4   7 N        1.967    -0.120    24.365     7.320
     5   6 C        3.029     0.042    27.040     8.530
     6   1 H        0.927     0.045     2.389     2.417
     7   1 H        0.926     0.061     2.185     2.311
     8   1 H        0.926     0.050     2.315     2.379

 Mol. C6AA /au·bohr⁶  :        849.123673
 Mol. C8AA /au·bohr⁸  :      19949.105859
 Mol. α(0) /au        :         45.622356


Wiberg/Mayer (AO) data.
largest (>0.10) Wiberg bond orders for each atom

 ---------------------------------------------------------------------------
     #   Z sym  total        # sym  WBO       # sym  WBO       # sym  WBO
 ---------------------------------------------------------------------------
     1   6 C    3.984 --     2 C    1.590     5 C    1.299     6 H    0.975
     2   6 C    3.927 --     1 C    1.590     3 O    1.187     7 H    0.962
                             4 N    0.171
     3   8 O    2.484 --     2 C    1.187     4 N    1.108
     4   7 N    2.958 --     5 C    1.612     3 O    1.108     2 C    0.171
     5   6 C    3.981 --     4 N    1.612     1 C    1.299     8 H    0.967
     6   1 H    0.998 --     1 C    0.975
     7   1 H    0.996 --     2 C    0.962
     8   1 H    0.997 --     5 C    0.967
 ---------------------------------------------------------------------------

Topologies differ in total number of bonds
Writing topology from bond orders to xtbtopo.mol

molecular dipole:
                 x           y           z       tot (Debye)
 q only:       -0.177       0.617       0.000
   full:       -0.326       1.013       0.000       2.704
molecular quadrupole (traceless):
                xx          xy          yy          xz          yz          zz
 q only:        2.508       0.189      -2.002      -0.000      -0.000      -0.506
  q+dip:        3.971       1.716      -3.392      -0.000      -0.000      -0.578
   full:        3.430       1.529      -4.083      -0.000      -0.000       0.653

           -------------------------------------------------
          |                Geometry Summary                 |
           -------------------------------------------------

      molecular mass/u    :       69.0621381
   center of mass at/Å    :       -0.0109660      -0.4456819      -0.0000046
  moments of inertia/u·Å² :        0.5089199E+02   0.5121580E+02   0.1021078E+03
rotational constants/cm⁻¹ :        0.3312433E+00   0.3291490E+00   0.1650964E+00

 * 8 selected distances

     #   Z          #   Z                                           value/Å
     1   6 C        2   6 C                                       1.3627917
     2   6 C        3   8 O                                       1.3340290
     3   8 O        4   7 N                                       1.3490647
     1   6 C        5   6 C                                       1.4141522 (max)
     4   7 N        5   6 C                                       1.3026545
     1   6 C        6   1 H                                       1.0689052 (min)
     2   6 C        7   1 H                                       1.0715575
     5   6 C        8   1 H                                       1.0709032

 * 5 distinct bonds (by element types)

   Z      Z             #   av. dist./Å        max./Å        min./Å
   1 H    6 C           3     1.0704553     1.0715575     1.0689052
   6 C    6 C           2     1.3884720     1.4141522     1.3627917
   6 C    7 N           1     1.3026545     1.3026545     1.3026545
   6 C    8 O           1     1.3340290     1.3340290     1.3340290
   7 N    8 O           1     1.3490647     1.3490647     1.3490647


optimized geometry written to: xtbopt.xyz


           -------------------------------------------------
          | TOTAL ENERGY              -14.882829323112 Eh   |
          | GRADIENT NORM               0.000075553054 Eh/α |
          | HOMO-LUMO GAP               4.422649871509 eV   |
           -------------------------------------------------

------------------------------------------------------------------------
 * finished run on 2024/12/10 at 07:23:47.965     
------------------------------------------------------------------------
 total:
 * wall-time:     0 d,  0 h,  0 min,  2.998 sec
 *  cpu-time:     0 d,  0 h,  0 min,  9.238 sec
 * ratio c/w:     3.081 speedup
 SCF:
 * wall-time:     0 d,  0 h,  0 min,  0.856 sec
 *  cpu-time:     0 d,  0 h,  0 min,  2.643 sec
 * ratio c/w:     3.088 speedup
 ANC optimizer:
 * wall-time:     0 d,  0 h,  0 min,  1.807 sec
 *  cpu-time:     0 d,  0 h,  0 min,  5.794 sec
 * ratio c/w:     3.207 speedup

