8
 energy: -14.879891393327 gnorm: 0.062605226493 xtb: 6.6.1 (8d0f1dd)
C           -0.01437400000000        0.78177800000000       -0.00000300000000
C           -1.09322700000000       -0.06320200000000        0.00000100000000
O           -0.66356800000000       -1.35027500000000       -0.00000300000000
N            0.72324700000000       -1.36913400000000       -0.00000200000000
C            1.09184600000000       -0.08576900000000       -0.00000100000000
H           -0.02509800000000        1.86061000000000       -0.00000300000000
H           -2.16453400000000        0.07150500000000        0.00000500000000
H            2.14570900000000        0.15448800000000        0.00000500000000
8
 energy: -14.882383793944 gnorm: 0.025150565866 xtb: 6.6.1 (8d0f1dd)
C           -0.01747018248377        0.77758601448936        0.00000144856895
C           -1.08743984500996       -0.06882314034256       -0.00000074578695
O           -0.65685210914116       -1.33870747171928        0.00000121310136
N            0.71133525039805       -1.34410516857281        0.00000008909277
C            1.09025264893919       -0.08913101802053       -0.00000076972896
H           -0.02617788352535        1.84874377561888        0.00000040061285
H           -2.15135648928280        0.06829797109621       -0.00000113339741
H            2.13770961010581        0.14614003745073       -0.00000150246262
8
 energy: -14.882791236009 gnorm: 0.006285315170 xtb: 6.6.1 (8d0f1dd)
C           -0.02112955289580        0.77843594682535       -0.00000187312672
C           -1.08354892865347       -0.07371049867078        0.00000138057973
O           -0.64900095703075       -1.33375783959721       -0.00000330237542
N            0.70396765535766       -1.33544969967053       -0.00000139969902
C            1.08921951529411       -0.09371561957739        0.00000102545452
H           -0.02815770219904        1.84712909900316       -0.00000296258450
H           -2.14471568010840        0.06911590842427        0.00000361700991
H            2.13336665023568        0.14195370326314        0.00000251474150
8
 energy: -14.882820529082 gnorm: 0.002523925638 xtb: 6.6.1 (8d0f1dd)
C           -0.02199461054104        0.77886366395103        0.00000140522913
C           -1.08353702470920       -0.07520361251557       -0.00000166365861
O           -0.64773871893312       -1.33523004956004        0.00000293154282
N            0.70266281223488       -1.33711385440690        0.00000102183123
C            1.08965359258298       -0.09445256659550       -0.00000174859685
H           -0.02776556733257        1.84765670475205        0.00000242490327
H           -2.14480151027331        0.07142000165398       -0.00000263569066
H            2.13352202697138        0.14406071272095       -0.00000273556033
8
 energy: -14.882828765650 gnorm: 0.000471386613 xtb: 6.6.1 (8d0f1dd)
C           -0.02269293043334        0.77834485870171       -0.00000287019469
C           -1.08406836852320       -0.07649014482934        0.00000353681188
O           -0.64679264936862       -1.33669202587954       -0.00000617907376
N            0.70211089517801       -1.33857578644611       -0.00000290570442
C            1.09000570063266       -0.09493943744064        0.00000343741304
H           -0.02670903134734        1.84718534074286       -0.00000572580756
H           -2.14518184424165        0.07424261911321        0.00000567175961
H            2.13332922810347        0.14692557603785        0.00000403479589
8
 energy: -14.882829293281 gnorm: 0.000221419910 xtb: 6.6.1 (8d0f1dd)
C           -0.02285008285101        0.77774726394970        0.00000523202123
C           -1.08440887439604       -0.07686400271626       -0.00000762727672
O           -0.64667344742696       -1.33709368760531        0.00001275667394
N            0.70222882397341       -1.33874627594178        0.00000625455879
C            1.08997255575002       -0.09501498851976       -0.00000879870285
H           -0.02601659196101        1.84662937500091        0.00001220765057
H           -2.14519331692465        0.07525239241797       -0.00001140337126
H            2.13294193383624        0.14809092341453       -0.00000962155369
8
 energy: -14.882829323043 gnorm: 0.000074726991 xtb: 6.6.1 (8d0f1dd)
C           -0.02284122382480        0.77769208648800       -0.00001139280272
C           -1.08441462610576       -0.07686212537046        0.00001456594021
O           -0.64674794696045       -1.33705297984469       -0.00002395882397
N            0.70231569623897       -1.33866896210140       -0.00001275168490
C            1.08990848487168       -0.09501295999128        0.00001599075037
H           -0.02594634001019        1.84659264794284       -0.00002308018490
H           -2.14512524141417        0.07521763934294        0.00002216477880
H            2.13285219720470        0.14809565353407        0.00001746202711
